# vtk DataFile Version 2.0
Square plate test
ASCII
DATASET UNSTRUCTURED_GRID
POINTS 726 float
1.37031 3.35421 3.34238
1.38076 3.26196 3.34171
1.17773 3.26141 2.91263
1.16348 3.3554 2.90958
1.16103 3.26149 3.36142
1.14647 3.35546 3.36242
1.39669 3.26206 2.93942
1.3865 3.35431 2.93696
1.41508 3.26162 3.75319
1.40324 3.35413 3.75792
1.20566 3.25981 3.81542
1.18988 3.35324 3.82121
1.61623 3.26151 3.68498
1.5881 3.26168 3.32086
1.60921 3.35186 3.68814
1.58234 3.35117 3.32112
1.60308 3.26205 2.96795
1.59752 3.3515 2.96626
1.27218 3.26188 3.35171
1.38208 3.26217 3.14026
1.3733 3.31824 3.34215
1.25984 3.35503 3.35253
1.37187 3.35426 3.13936
1.16157 3.26154 3.13673
1.28852 3.26188 2.9257
1.16858 3.31868 2.91066
1.14726 3.35546 3.13571
1.27646 3.35504 2.92296
1.15167 3.31875 3.36202
1.38943 3.31834 2.93772
1.39199 3.26169 3.54547
1.31113 3.2611 3.785
1.40668 3.31802 3.75643
1.38103 3.35416 3.54793
1.29744 3.35413 3.79025
1.17582 3.26099 3.58741
1.19545 3.31682 3.81913
1.16079 3.35489 3.59061
1.48623 3.26185 3.33143
1.51696 3.26165 3.71988
1.59727 3.26144 3.50049
1.61061 3.31681 3.68732
1.58334 3.3166 3.32105
1.47782 3.35294 3.33192
1.5072 3.35335 3.72397
1.59105 3.35136 3.50197
1.58971 3.26198 3.14403
1.58414 3.35124 3.14331
1.50172 3.26208 2.95358
1.59848 3.31696 2.96669
1.49355 3.35315 2.95144
1.36953 3.38002 3.34251
1.1604 3.38183 2.90895
1.14336 3.38188 3.36271
1.38574 3.38012 2.93667
1.40227 3.3801 3.75854
1.18664 3.37937 3.82248
1.60993 3.3768 3.68822
1.58323 3.37557 3.32114
1.59839 3.37586 2.96624
1.27319 3.26202 3.13841
1.26379 3.31866 3.35223
1.3748 3.31838 3.13962
1.26108 3.35506 3.13746
1.15239 3.31878 3.13605
1.28033 3.31866 2.92386
1.285 3.26155 3.56682
1.38419 3.31807 3.54714
1.30181 3.31782 3.7885
1.27215 3.35477 3.56964
1.16613 3.31822 3.58943
1.49626 3.26159 3.52335
1.47992 3.31754 3.33176
1.50973 3.31761 3.72276
1.59219 3.31654 3.50158
1.48736 3.35303 3.5254
1.48776 3.26211 3.14216
1.58509 3.3168 3.14349
1.47957 3.35301 3.14134
1.49558 3.31776 2.95206
1.25811 3.3812 3.35272
1.37111 3.37998 3.13929
1.14416 3.38185 3.13555
1.27475 3.38121 2.92253
1.38019 3.38011 3.54828
1.29553 3.38022 3.79114
1.15763 3.38127 3.59138
1.47784 3.3782 3.33201
1.50701 3.37898 3.72434
1.59188 3.37604 3.50201
1.58504 3.37549 3.14332
1.49356 3.37839 2.95128
1.26496 3.31875 3.13775
1.27625 3.31836 3.56868
1.48961 3.31743 3.52478
1.4816 3.31772 3.14156
1.25938 3.38116 3.13735
1.27036 3.38099 3.57016
1.4873 3.37851 3.52561
1.4796 3.37814 3.1413
1.77889 3.26173 3.29881
1.80477 3.26192 3.61001
1.78214 3.34589 3.29829
1.80706 3.34715 3.6099
1.79273 3.26237 2.99647
1.79603 3.3465 2.99633
1.71235 3.2615 3.64839
1.68582 3.2616 3.30998
1.7092 3.34977 3.6502
1.6838 3.34884 3.30992
1.7873 3.26165 3.45257
1.77936 3.31419 3.29854
1.80457 3.31485 3.61043
1.79022 3.3463 3.45207
1.70026 3.26211 2.98232
1.69837 3.3493 2.98127
1.78042 3.26202 3.14726
1.79327 3.31483 2.99609
1.78376 3.34595 3.14693
1.78608 3.36722 3.29805
1.81089 3.36914 3.60888
1.7999 3.36777 2.99689
1.69446 3.26139 3.47689
1.709 3.31582 3.64993
1.68325 3.31547 3.30998
1.69203 3.34912 3.47755
1.78753 3.31432 3.45251
1.68743 3.2619 3.14576
1.68556 3.3489 3.1452
1.69781 3.31597 2.98142
1.78097 3.31438 3.14693
1.71117 3.37354 3.64984
1.68591 3.37197 3.30984
1.79414 3.36794 3.45143
1.70044 3.37237 2.98148
1.78768 3.36712 3.14709
1.69161 3.31547 3.4775
1.68497 3.31567 3.14531
1.6941 3.37256 3.47732
1.68766 3.37187 3.14527
1.25544 3.25926 2.46147
1.24059 3.35265 2.45347
1.46261 3.26182 2.5304
1.4516 3.35429 2.5237
1.66088 3.26247 2.60661
1.6545 3.35268 2.60189
1.20914 3.26076 2.68793
1.35987 3.26092 2.49493
1.24587 3.31625 2.4563
1.19473 3.35466 2.68263
1.34706 3.35393 2.48758
1.42379 3.26187 2.73691
1.45482 3.31821 2.52579
1.41337 3.35433 2.7326
1.56312 3.26224 2.56769
1.62715 3.26214 2.78976
1.65575 3.31772 2.60314
1.55411 3.35384 2.5618
1.62135 3.35197 2.78683
1.23745 3.37876 2.4518
1.45066 3.38022 2.52285
1.65517 3.37749 2.60177
1.31761 3.2615 2.7118
1.19987 3.31799 2.68452
1.35118 3.31763 2.49002
1.30533 3.35474 2.70701
1.41638 3.31824 2.73395
1.52716 3.26203 2.76299
1.55646 3.31817 2.56353
1.6224 3.31722 2.78759
1.51874 3.35341 2.75926
1.19164 3.38106 2.68151
1.34522 3.38001 2.48639
1.41255 3.38026 2.73207
1.55393 3.37938 2.56128
1.62215 3.37657 2.78677
1.30927 3.31831 2.7086
1.52087 3.31786 2.76035
1.30359 3.38096 2.70623
1.51868 3.37884 2.75894
1.84597 3.26351 2.68864
1.84848 3.34861 2.68803
1.75534 3.2628 2.64699
1.75265 3.3509 2.64397
1.81489 3.26285 2.84431
1.84602 3.31642 2.68754
1.81793 3.34742 2.84415
1.85214 3.37045 2.68932
1.72325 3.26236 2.81696
1.75239 3.31707 2.64451
1.72111 3.34998 2.81517
1.81528 3.31551 2.84372
1.75453 3.37451 2.64441
1.82173 3.36895 2.84508
1.72065 3.31642 2.81545
1.72311 3.37331 2.81551
1.21626 3.04407 2.92103
1.43286 3.0479 2.94755
1.41793 3.04783 3.33984
1.20056 3.04414 3.35917
1.45661 3.0474 3.73794
1.24931 3.04281 3.7999
1.61645 3.05014 3.31991
1.6486 3.04973 3.67275
1.63053 3.05043 2.97463
1.39489 3.17521 3.34098
1.19295 3.1733 2.91594
1.17664 3.17338 3.3605
1.41044 3.1753 2.94254
1.20026 3.04423 3.13982
1.32651 3.04626 2.9341
1.41844 3.04805 3.1434
1.31119 3.04628 3.34958
1.4309 3.17479 3.74731
1.22284 3.1719 3.80928
1.43083 3.04752 3.53773
1.35446 3.04558 3.76933
1.21698 3.0437 3.57917
1.62819 3.17586 3.68037
1.59851 3.17625 3.3205
1.51996 3.04903 3.32995
1.55494 3.04866 3.70574
1.62711 3.04981 3.49477
1.61315 3.17661 2.97046
1.53447 3.04921 2.96114
1.61734 3.05044 3.14693
1.28724 3.17449 3.35086
1.3959 3.17544 3.14145
1.17686 3.17345 3.13793
1.3032 3.17448 2.92896
1.31135 3.04644 3.14156
1.40677 3.17489 3.54248
1.32785 3.17376 3.7789
1.19205 3.17291 3.58412
1.32568 3.04594 3.55867
1.49888 3.17573 3.33086
1.53125 3.17537 3.71448
1.60825 3.17591 3.49834
1.53159 3.04871 3.51641
1.59985 3.17659 3.14512
1.51399 3.17594 2.95645
1.5207 3.0493 3.14523
1.28793 3.17465 3.13962
1.3007 3.17414 3.56363
1.50952 3.17539 3.5207
1.50011 3.17602 3.14332
1.04812 3.23641 2.40113
0.955767 3.24093 2.88885
1.08386 3.02015 2.42
0.990016 3.02354 2.89631
1.29598 3.04237 2.48344
0.938494 3.24109 3.37959
0.97366 3.02367 3.37758
1.50101 3.04754 2.55218
1.02891 3.32839 2.39198
0.936568 3.33434 2.88521
0.918959 3.33451 3.38096
1.06324 3.14899 2.40894
0.992584 3.23979 2.64457
1.15097 3.25253 2.43015
0.970383 3.1529 2.89195
1.06619 3.25598 2.90031
1.27143 3.1714 2.47013
1.0273 3.02265 2.65724
1.19015 3.03506 2.45102
1.10359 3.0377 2.90841
1.24826 3.0435 2.70238
0.937719 3.24098 3.13389
0.953471 3.15305 3.37869
1.04918 3.25611 3.37075
0.972107 3.02362 3.13662
1.08755 3.03781 3.36852
1.47724 3.17498 2.53878
1.40004 3.04541 2.51719
1.46058 3.04764 2.75092
1.03714 3.29276 2.39575
0.944913 3.29797 2.88671
0.97342 3.3328 2.63829
1.13396 3.34572 2.42154
1.04952 3.35022 2.89695
0.9184 3.33444 3.13276
0.927424 3.29813 3.38033
1.03219 3.35034 3.37193
1.00735 3.15191 2.64984
1.16687 3.16451 2.43854
1.1002 3.25506 2.66546
1.08144 3.16752 2.90357
1.22459 3.17269 2.69363
1.13814 3.03694 2.67933
0.952402 3.15295 3.13499
1.04913 3.25608 3.13522
1.0648 3.16764 3.36981
1.08667 3.03782 3.13817
1.37539 3.17359 2.50358
1.43779 3.17505 2.7423
1.35623 3.04588 2.72628
0.981706 3.29664 2.6409
1.14062 3.30948 2.42482
1.05613 3.31344 2.89824
1.08345 3.34904 2.65966
0.926804 3.29804 3.13319
1.03237 3.3503 3.13414
1.0389 3.31356 3.37143
1.11564 3.16669 2.67105
1.06443 3.16762 3.13638
1.33253 3.17408 2.71742
1.09006 3.31239 2.66189
1.03902 3.31353 3.13453
1.02206 3.35367 2.38903
0.929478 3.36039 2.88402
0.911798 3.36055 3.38154
0.966429 3.35862 2.63621
1.12915 3.37161 2.41928
1.04465 3.37666 2.89607
0.911252 3.36052 3.13245
1.02726 3.37677 3.37235
1.07861 3.37535 2.65809
1.02746 3.37674 3.13391
0.996766 3.23748 3.87126
1.03531 3.02096 3.85804
0.976535 3.32963 3.87805
0.958155 3.24025 3.62552
1.01298 3.14995 3.86573
1.10032 3.25338 3.84424
0.994714 3.02301 3.61834
1.14249 3.03572 3.82951
0.985125 3.29392 3.87519
0.938315 3.33331 3.6295
1.08233 3.34668 3.85056
0.973648 3.15233 3.62247
1.06627 3.25543 3.60703
1.11738 3.16528 3.83828
1.10617 3.03725 3.5991
0.946842 3.29713 3.62778
1.08931 3.31039 3.8481
1.04888 3.34943 3.61063
1.08247 3.16703 3.60379
1.0557 3.31278 3.6092
0.969472 3.35498 3.88036
0.931182 3.35915 3.63095
1.07736 3.3726 3.85231
1.04393 3.37574 3.61171
1.69046 3.05049 2.62472
1.6718 3.17678 2.61343
1.59808 3.04912 2.58811
1.65518 3.05037 2.80117
1.57628 3.17593 2.57548
1.63746 3.17658 2.79405
1.56051 3.04906 2.77599
1.53968 3.17581 2.76794
1.30933 3.25434 4.28044
1.49392 3.26308 4.18721
1.36095 3.03923 4.24389
1.54478 3.04887 4.14877
1.67964 3.26368 4.07673
1.72118 3.05144 4.04289
1.29104 3.34468 4.29331
1.47895 3.35418 4.19886
1.66965 3.35404 4.08559
1.44929 3.262 3.96654
1.25026 3.25767 4.04619
1.32959 3.16758 4.26611
1.40129 3.26023 4.23553
1.51337 3.1765 4.17245
1.49477 3.04776 3.94133
1.29737 3.04135 4.02144
1.45346 3.0454 4.1974
1.64402 3.26217 3.87637
1.58683 3.2639 4.13458
1.69515 3.17787 4.06398
1.6802 3.05018 3.85505
1.63425 3.05057 4.09745
1.43615 3.35413 3.97426
1.23341 3.35001 4.05514
1.29741 3.30991 4.28885
1.38466 3.351 4.24786
1.48344 3.31889 4.19527
1.63577 3.35274 3.88192
1.67201 3.31902 4.08324
1.57394 3.35495 4.14516
1.46664 3.17523 3.95685
1.35006 3.26064 4.00749
1.26877 3.17018 4.03645
1.42145 3.17349 4.22076
1.39717 3.04535 3.98207
1.54744 3.26232 3.92297
1.65745 3.17641 3.86834
1.60478 3.17762 4.12044
1.58937 3.04917 3.89905
1.44002 3.31824 3.97186
1.33513 3.35292 4.01584
1.23931 3.31417 4.05198
1.39001 3.31595 4.24384
1.63756 3.31757 3.88046
1.53638 3.35396 3.92982
1.57751 3.31962 4.14208
1.36825 3.17349 3.99762
1.56326 3.176 3.91385
1.33992 3.31703 4.01309
[...]
POINT_DATA 726
SCALARS pact float 1
LOOKUP_TABLE default
0
0
0
0
0
0
0
0
0
0
0
0
0
0
0
0
0
0
0
0
0
0
0
0
0
0
0
0
0
0
0
0
0
0
0
0
0
0
0
0
0
0
0
0
0
0
0
0
0
0
0
0
0
0
0
0
0
0
0
0
0
0
0
0
0
0
0
0
0
0
0
0
0
0
0
0
0
0
0
0
0
0
0
0
0
0
0
0
0
0
0
0
0
0
0
0
0
0
0
1
0
0
0
0
0
0
0
0
0
0
0
0
0
0
0
0
0
0
0
0
0
0
0
0
0
0
0
0
0
0
0
0
0
0
0
0
0
0
0
0
0
0
0
0
0
0
0
0
0
0
0
0
0
0
0
0
0
0
0
0
0
0
0
0
0
0
0
0
0
0
0
0
0
0
0
0
0
0
0
0
0
0
0
0
0
0
0
0
0
0
0
0
0
0
0
0
0
0
0
0
0
0
0
0
0
0
0
0
0
0
0
0
0
0
0
0
0
0
0
0
0
0
0
0
0
0
0
0
0
0
0
0
0
0
0
0
0
0
0
0
0
0
0
0
0
0
0
0
0
0
0
0
0
0
0
0
0
0
0
0
0
0
0
0
0
0
0
0
0
0
0
0
0
0
0
0
0
0
0
0
0
0
0
0
0
0
0
0
0
0
0
0
0
0
0
0
0
0
0
0
0
0
0
0
0
0
0
0
0
0
0
0
0
0
0
0
0
0
0
0
0
0
0
0
0
0
0
0
0
0
0
0
0
0
0
0
0
0
0
0
0
0
0
0
0
0
0
0
0
0
0
0
0
0
0
0
0
0
0
0
0
0
0
0
0
0
0
0
0
0
0
0
0
0
0
0
0
0
0
0
0
0
0
0
0
0
0
0
0
0
0
0
0
0
0
0
0
0
0
0
0
0
0
0
0
0
0
0
0
0
0
0
0
0
0
0
0
0
0
0
0
0
0
0
0
0
0
0
0
0
0
0
0
0
0
0
0
0
0
0
0
0
0
0
0
0
0
0
0
0
0
0
0
0
0
0
0
0
0
0
0
0
0
0
0
0
0
0
0
0
0
0
0
0
0
0
0
0
0
0
0
0
0
0
0
0
0
0
0
0
0
0
0
0
0
0
0
0
0
0
0
0
0
0
0
0
0
0
0
0
0
0
0
0
0
0
0
0
0
0
0
0
0
0
0
0
0
0
0
0
0
0
0
0
0
0
0
0
0
0
0
0
0
0
0
0
0
0
0
0
0
0
0
0
0
0
0
0
0
0
0
0
0
0
0
0
0
0
0
0
0
0
0
0
0
0
0
0
0
0
0
0
0
0
0
0
0
0
0
0
0
0
0
0
0
0
0
0
0
0
0
0
0
0
0
0
0
0
0
0
0
0
0
0
0
0
0
0
0
0
0
0
0
0
0
0
0
0
0
0
0
0
0
0
0
0
0
0
0
0
0
0
0
0
0
0
0
0
0
0
0
0
0
0
0
0
0
0
0
0
0
0
0
0
0
0
0
0
0
0
0
0
0
0
0
0
0
0
0
0
0
0
0
0
0
0
0
0
0
0
0
0
0
0
0
0
0
0
0
0
0
0
0
0
0
0
0
0
0
0
0
0
0
0
0
0
0
0
0
0
0
0
0
0
0
0

CELL_DATA 256
SCALARS eact float 1
LOOKUP_TABLE default
1
1
1
1
1
1
1
1
1
1
1
1
1
1
1
1
1
1
1
1
1
1
1
1
1
1
1
1
1
1
1
1
0
0
0
0
0
0
0
0
0
0
0
0
0
0
0
0
0
0
0
0
0
0
0
0
0
0
0
0
0
0
0
0
0
0
0
0
0
0
0
0
0
0
0
0
0
0
0
0
0
0
0
0
0
0
0
0
0
0
0
0
0
0
0
0
0
0
0
0
0
0
0
0
0
0
0
0
0
0
0
0
0
0
0
0
0
0
0
0
0
0
0
0
0
0
0
0
0
0
0
0
0
0
0
0
0
0
0
0
0
0
0
0
0
0
0
0
0
0
0
0
0
0
0
0
0
0
0
0
0
0
0
0
0
0
0
0
0
0
0
0
0
0
0
0
0
0
0
0
0
0
0
0
0
0
0
0
0
0
0
0
0
0
0
0
0
0
0
0
0
0
0
0
0
0
0
0
0
0
0
0
0
0
0
0
0
0
0
0
0
0
0
0
0
0
0
0
0
0
0
0
0
0
0
0
0
0
0
0
0
0
0
0
0
0
0
0
0
0
0
0
0
0
0
0
