# vtk DataFile Version 2.0
Square plate test
ASCII
DATASET UNSTRUCTURED_GRID
POINTS 400 float
13.8029 20.3053 30
30 30 30
13.8029 20.3053 0
30 30 0
6.94046 20.3053 30
0 30 30
6.94046 20.3053 0
0 30 0
0 0 0
6.94046 13.0316 0
0 0 30
6.94046 13.0316 30
30 0 30
30 0 0
13.8029 13.0316 30
13.8029 13.0316 0
22.3627 25.5508 30
30 30 15
22.3627 25.5508 0
13.7408 20.3629 14.9996
19.1648 22.1461 14.4329
10.3717 21.66 30
12.6262 25.5949 30
15 30 30
15 30 15
15 30 0
12.6261 25.5948 0
10.3717 21.66 0
10.3718 21.6653 15
12.2452 24.0044 14.4454
3.04489 25.5461 30
0 30 15
3.04491 25.5461 0
7.00257 20.3629 15.0004
5.26781 22.1861 14.4913
0 15 0
3.03291 6.10602 0
5.37167 16.6684 0
2.86055 15.8649 0
0 15 15
0 0 15
5.2319 8.16347 14.5149
7.00248 12.9741 14.9996
5.37167 16.6685 15
3.37206 15.1593 14.5113
0 15 30
3.03287 6.10599 30
5.37167 16.6684 30
2.85952 15.8651 30
15 0 30
30 0 15
15 0 0
15 0 15
12.6504 6.08437 30
22.3574 6.11383 30
19.1646 8.16509 14.5161
22.3574 6.11384 0
12.6503 6.08447 0
12.1794 6.34017 14.519
10.3717 11.6769 30
13.7409 12.9741 15.0004
10.3717 11.6769 0
10.3718 11.6716 15
15.3717 16.6684 30
15.3717 16.6684 0
15.3717 16.6685 15
22.4004 15.8425 30
22.4006 15.8425 0
21.0406 15.1814 14.4904
30 15 30
30 15 0
30 15 15
18.5113 23.2891 30
19.8915 22.9437 22.1451
16.1898 20.8982 14.6385
13.7408 20.3629 22.5001
16.6939 21.4459 22.2807
12.2155 21.3092 30
14.878 23.2667 30
17.4791 25.5307 30
16.4815 24.1726 22.1347
16.1602 23.7316 14.5204
14.0024 22.1519 14.6827
12.1759 21.3244 14.9998
12.1773 21.3233 22.5004
14.2546 22.5075 22.3014
11.4496 23.4905 30
12.4159 24.5483 22.1642
11.2829 22.5251 14.6879
10.3733 21.6627 22.5006
11.3698 22.856 22.3139
0 22.5 0
1.44928 15.4373 0
3.02519 20.6011 0
1.51146 27.7807 0
1.51782 21.5597 0
0 30 7.5
0 22.5 7.5
0 15 7.5
1.74414 15.0679 7.24625
3.25676 15.3709 7.16363
3.62482 19.4866 7.17242
4.92077 22.9897 7.1972
3.3662 25.4556 7.28926
2.07618 20.7326 7.31031
0 22.5 15
1.87352 15.0263 14.7139
3.8494 19.2054 14.61
3.72471 24.936 14.7166
2.2657 20.5196 14.775
7.5 0 30
15 0 22.5
7.5 0 15
0 0 22.5
7.5 0 22.5
1.50779 3.04839 30
7.68361 3.04364 30
13.827 3.04862 30
13.5767 3.23197 22.2506
13.4979 3.30198 14.6674
8.14361 3.64979 14.6742
3.68489 5.13697 14.6979
3.34561 4.83511 22.299
8.08433 3.55993 22.315
7.87951 6.08249 30
12.3826 6.32887 22.2206
8.42386 6.81272 14.6167
4.90935 7.91175 22.2356
8.3525 6.69514 22.2821
14.955 18.6455 30
15.3716 16.6667 22.5004
14.9458 18.6877 14.9998
14.9465 18.6857 22.5003
18.5903 19.7224 30
18.6747 16.265 30
18.0395 15.9213 22.2404
17.815 15.8165 14.6618
17.4697 18.6688 14.6826
17.8064 18.9874 22.3044
22.3815 20.6747 30
21.5078 15.4524 22.199
20.7867 19.2197 14.5839
21.2668 19.6652 22.2511
26.1849 27.7814 30
30 30 22.5
23.4286 24.8895 14.6697
23.9835 25.494 22.2994
20.0015 27.7708 30
22.5 30 30
22.5 30 22.5
22.5 30 15
18.9895 26.4042 14.6952
19.2634 26.7952 22.3078
13.8146 27.7857 30
15 30 22.5
13.6098 26.7581 14.7013
13.6974 27.0935 22.3185
30 30 7.5
26.1849 27.7814 0
19.9157 22.9811 7.17261
23.9943 25.5101 7.31145
22.5 30 7.5
22.5 30 0
20.0015 27.7708 0
17.4791 25.5306 0
16.5407 24.274 7.19967
19.2776 26.8212 7.32497
15 30 7.5
13.8146 27.7856 0
12.4421 24.6122 7.20435
13.7072 27.1177 7.33365
18.5118 23.2892 0
13.7408 20.3629 7.49899
16.705 21.4624 7.29297
14.8774 23.2666 0
12.2155 21.3092 0
12.1749 21.3251 7.49915
14.268 22.5327 7.3177
11.4499 23.4921 0
10.3703 21.6626 7.49934
11.3777 22.876 7.32631
8.52787 21.3092 30
8.16417 23.4114 30
7.90692 25.5928 30
8.3354 24.2258 22.1689
8.46302 23.7836 14.5625
8.57263 22.2035 14.718
8.56747 21.3245 15.0002
8.56844 21.3252 22.5008
8.50174 22.5689 22.3277
4.62021 23.2728 30
4.93633 23.0385 22.2242
6.30661 21.0157 14.7309
7.00248 20.3629 22.5009
6.04554 21.535 22.3491
7.6964 27.7933 30
7.5 30 30
7.5 30 22.5
7.5 30 15
8.24622 26.4801 14.7482
8.13766 26.8332 22.3325
1.51145 27.7807 30
0 30 22.5
3.39676 25.5509 22.3454
7.5 30 7.5
7.5 30 0
7.69641 27.7933 0
7.90677 25.5933 0
8.38086 24.3565 7.24732
8.14948 26.8672 7.35307
8.16418 23.4113 0
8.52787 21.3092 0
8.56611 21.324 7.49952
8.50833 22.5868 7.33879
4.62104 23.2724 0
7.00254 20.3629 7.49978
6.03782 21.5085 7.33354
0 7.5 0
1.50779 3.04839 0
3.06551 11.0451 0
1.52801 9.2565 0
0 7.5 7.5
0 0 7.5
3.33733 4.81006 7.27803
4.89351 7.87181 7.20024
3.64235 11.3176 7.20612
2.0737 9.58667 7.31359
0 7.5 15
3.84328 11.4164 14.6212
2.25547 9.70492 14.7724
4.60122 9.19885 0
5.78835 14.6914 0
4.19272 16.2801 0
4.60341 12.9052 0
6.00148 10.52 7.30553
7.00249 12.9741 7.499
5.79791 14.6484 7.49933
5.37174 16.667 7.49953
4.52172 15.965 7.28886
4.92869 13.0613 7.32954
6.28075 10.7819 14.7386
5.79749 14.6493 14.9998
4.63168 15.8909 14.7362
5.06654 13.1409 14.7898
5.78835 18.6455 0
4.49934 19.6118 0
5.79692 18.6861 7.49967
4.91482 18.9764 7.3274
5.79752 18.6877 15.0002
5.06766 18.7879 14.7859
0 22.5 22.5
0 15 22.5
1.77896 15.1716 22.3167
3.29313 15.4816 22.2375
3.68011 19.6659 22.2803
2.10656 20.828 22.3696
0 22.5 30
1.44923 15.4373 30
3.0255 20.6012 30
1.51782 21.5597 30
0 7.5 22.5
3.68097 11.4106 22.2826
2.09817 9.64646 22.3618
0 7.5 30
3.06529 11.045 30
1.52799 9.25649 30
6.02446 10.5646 22.3487
7.00249 12.9741 22.5002
5.79693 14.6508 22.5003
5.37174 16.6698 22.5004
4.55209 16.0532 22.3498
4.95371 13.1207 22.3785
4.60146 9.19886 30
5.78835 14.6914 30
4.19277 16.2797 30
4.6013 12.904 30
5.79786 18.6883 22.5006
4.94035 19.057 22.3776
5.78835 18.6455 30
4.49886 19.612 30
22.5 0 30
30 0 22.5
22.5 0 15
22.5 0 22.5
20.0015 3.05811 30
26.1831 3.05134 30
23.8856 4.80496 22.2646
23.3939 5.14061 14.6975
18.9192 3.68111 14.7096
19.2152 3.5632 22.3144
17.4874 6.12231 30
19.9026 7.89261 22.2129
16.1656 6.82374 14.6254
16.5569 6.70174 22.2774
30 0 7.5
22.5 0 0
15 0 7.5
22.5 0 7.5
23.9436 4.8416 7.30554
26.1831 3.05134 0
20.0015 3.05811 0
13.827 3.04861 0
13.6195 3.26 7.28768
19.2362 3.57643 7.33055
19.9346 7.91321 7.23618
17.4874 6.12232 0
12.4029 6.33965 7.23557
16.5735 6.71189 7.28961
7.5 0 0
7.5 0 7.5
7.68363 3.04365 0
8.09069 3.55884 7.31649
7.87952 6.08253 0
8.35492 6.68882 7.27794
8.12181 9.10162 30
11.47 9.05512 30
11.3256 9.18999 22.3202
11.252 9.23621 14.7398
8.56641 9.63097 14.783
8.49281 9.53252 22.3724
8.52787 12.0277 30
10.3703 11.6743 22.5006
8.56742 12.0125 14.9998
8.56606 12.0129 22.5005
14.9157 9.19991 30
18.5061 9.20238 30
16.6666 10.5137 22.2974
16.2176 10.7547 14.7129
14.0356 9.63382 14.7799
14.2792 9.54181 22.3626
12.2155 12.0277 30
13.7408 12.974 22.501
12.1759 12.0125 15.0002
12.1749 12.0118 22.5008
16.7172 10.5481 7.3337
18.5057 9.20258 0
14.9154 9.20011 0
11.4699 9.05542 0
11.3585 9.21146 7.34724
14.2962 9.55313 7.375
13.7408 12.974 7.49981
12.2155 12.0277 0
10.3732 11.6741 7.49935
12.1771 12.0134 7.49955
8.12143 9.10068 0
8.49521 9.52728 7.36881
8.52787 12.0277 0
8.56848 12.0118 7.49917
14.955 14.6914 30
14.9458 14.6493 15.0002
14.9454 14.6483 22.5006
18.5562 12.788 30
17.468 13.0467 14.7064
17.7931 13.0288 22.3148
22.3671 10.9973 30
20.7778 11.4161 14.6109
21.2567 11.3894 22.2679
14.955 14.6914 0
15.3716 16.67 7.49954
14.9464 14.6509 7.49969
18.5559 12.7885 0
18.6743 16.2653 0
18.0967 15.9758 7.28419
17.8162 13.0479 7.33197
22.367 10.9973 0
21.5384 15.4805 7.22322
21.2765 11.4047 7.28273
14.955 18.6455 0
14.9454 18.6885 7.49933
18.5904 19.7226 0
17.8212 19.0038 7.31726
22.3814 20.6747 0
21.2815 19.6821 7.26465
26.189 21.5916 30
26.194 15.4209 30
25.5314 15.1675 22.3022
25.2761 15.0597 14.7193
24.994 20.5192 14.7564
25.3275 20.8229 22.3515
30 22.5 30
30 15 22.5
30 22.5 15
30 22.5 22.5
26.1832 9.2439 30
24.9775 9.70652 14.7653
25.3057 9.63538 22.35
30 7.5 30
30 7.5 15
30 7.5 22.5
26.1832 9.24391 0
26.194 15.4209 0
25.5799 15.2112 7.33793
25.3268 9.65133 7.36525
30 7.5 0
30 15 7.5
30 7.5 7.5
26.189 21.5916 0
25.3398 20.8357 7.36173
30 22.5 0
30 22.5 7.5

CELLS 256 2304
8 0 72 76 75 77 78 85 84 
8 7 91 95 94 96 97 104 103 
8 10 110 114 113 115 116 123 122 
8 0 129 132 75 72 133 138 76 
8 16 143 146 73 79 147 152 80 
8 20 145 160 159 81 151 166 165 
8 19 74 173 172 83 82 177 176 
8 21 86 90 89 181 182 189 188 
8 22 153 156 87 183 195 200 184 
8 29 155 170 169 185 199 209 208 
8 28 88 180 179 187 186 213 212 
8 35 217 220 92 98 221 226 99 
8 38 219 233 232 100 225 239 238 
8 32 93 245 214 102 101 247 216 
8 31 105 109 108 202 250 255 203 
8 39 227 229 106 251 260 262 252 
8 44 228 243 242 253 261 271 270 
8 34 107 249 192 191 254 277 194 
8 49 280 283 111 117 284 289 118 
8 52 282 297 296 119 288 303 302 
8 40 112 309 222 121 120 311 223 
8 46 124 128 127 272 314 319 266 
8 53 290 293 125 315 324 329 316 
8 58 292 307 306 317 328 339 338 
8 41 126 313 224 240 318 345 234 
8 63 348 350 130 134 351 353 135 
8 65 349 359 358 136 352 363 362 
8 19 131 368 172 74 137 370 173 
8 16 139 142 73 143 373 378 146 
8 66 354 356 140 374 383 385 375 
8 68 355 366 365 376 384 392 391 
8 20 141 372 159 145 377 397 160 
8 72 16 73 76 78 79 80 85 
8 76 73 20 74 85 80 81 82 
8 75 76 74 19 84 85 82 83 
8 77 78 85 84 21 86 90 89 
8 78 79 80 85 86 22 87 90 
8 85 80 81 82 90 87 29 88 
8 84 85 82 83 89 90 88 28 
8 91 35 92 95 97 98 99 104 
8 95 92 38 93 104 99 100 101 
8 94 95 93 32 103 104 101 102 
8 96 97 104 103 31 105 109 108 
8 97 98 99 104 105 39 106 109 
8 104 99 100 101 109 106 44 107 
8 103 104 101 102 108 109 107 34 
8 110 49 111 114 116 117 118 123 
8 114 111 52 112 123 118 119 120 
8 113 114 112 40 122 123 120 121 
8 115 116 123 122 46 124 128 127 
8 116 117 118 123 124 53 125 128 
8 123 118 119 120 128 125 58 126 
8 122 123 120 121 127 128 126 41 
8 129 63 130 132 133 134 135 138 
8 132 130 65 131 138 135 136 137 
8 75 132 131 19 76 138 137 74 
8 72 133 138 76 16 139 142 73 
8 133 134 135 138 139 66 140 142 
8 138 135 136 137 142 140 68 141 
8 76 138 137 74 73 142 141 20 
8 143 1 144 146 147 148 149 152 
8 146 144 17 145 152 149 150 151 
8 73 146 145 20 80 152 151 81 
8 79 147 152 80 22 153 156 87 
8 147 148 149 152 153 23 154 156 
8 152 149 150 151 156 154 24 155 
8 80 152 151 81 87 156 155 29 
8 145 17 157 160 151 150 161 166 
8 160 157 3 158 166 161 162 163 
8 159 160 158 18 165 166 163 164 
8 81 151 166 165 29 155 170 169 
8 151 150 161 166 155 24 167 170 
8 166 161 162 163 170 167 25 168 
8 165 166 163 164 169 170 168 26 
8 74 20 159 173 82 81 165 177 
8 173 159 18 171 177 165 164 174 
8 172 173 171 2 176 177 174 175 
8 83 82 177 176 28 88 180 179 
8 82 81 165 177 88 29 169 180 
8 177 165 164 174 180 169 26 178 
8 176 177 174 175 179 180 178 27 
8 86 22 87 90 182 183 184 189 
8 90 87 29 88 189 184 185 186 
8 89 90 88 28 188 189 186 187 
8 181 182 189 188 4 190 194 193 
8 182 183 184 189 190 30 191 194 
8 189 184 185 186 194 191 34 192 
8 188 189 186 187 193 194 192 33 
8 153 23 154 156 195 196 197 200 
8 156 154 24 155 200 197 198 199 
8 87 156 155 29 184 200 199 185 
8 183 195 200 184 30 201 203 191 
8 195 196 197 200 201 5 202 203 
8 200 197 198 199 203 202 31 108 
8 184 200 199 185 191 203 108 34 
8 155 24 167 170 199 198 204 209 
8 170 167 25 168 209 204 205 206 
8 169 170 168 26 208 209 206 207 
8 185 199 209 208 34 108 103 102 
8 199 198 204 209 108 31 96 103 
8 209 204 205 206 103 96 7 94 
8 208 209 206 207 102 103 94 32 
8 88 29 169 180 186 185 208 213 
8 180 169 26 178 213 208 207 210 
8 179 180 178 27 212 213 210 211 
8 187 186 213 212 33 192 216 215 
8 186 185 208 213 192 34 102 216 
8 213 208 207 210 216 102 32 214 
8 212 213 210 211 215 216 214 6 
8 217 8 218 220 221 222 223 226 
8 220 218 36 219 226 223 224 225 
8 92 220 219 38 99 226 225 100 
8 98 221 226 99 39 227 229 106 
8 221 222 223 226 227 40 121 229 
8 226 223 224 225 229 121 41 228 
8 99 226 225 100 106 229 228 44 
8 219 36 230 233 225 224 234 239 
8 233 230 9 231 239 234 235 236 
8 232 233 231 37 238 239 236 237 
8 100 225 239 238 44 228 243 242 
8 225 224 234 239 228 41 240 243 
8 239 234 235 236 243 240 42 241 
8 238 239 236 237 242 243 241 43 
8 93 38 232 245 101 100 238 247 
8 245 232 37 244 247 238 237 246 
8 214 245 244 6 216 247 246 215 
8 102 101 247 216 34 107 249 192 
8 101 100 238 247 107 44 242 249 
8 247 238 237 246 249 242 43 248 
8 216 247 246 215 192 249 248 33 
8 105 39 106 109 250 251 252 255 
8 109 106 44 107 255 252 253 254 
8 108 109 107 34 203 255 254 191 
8 202 250 255 203 5 256 259 201 
8 250 251 252 255 256 45 257 259 
8 255 252 253 254 259 257 48 258 
8 203 255 254 191 201 259 258 30 
8 227 40 121 229 260 113 122 262 
8 229 121 41 228 262 122 127 261 
8 106 229 228 44 252 262 261 253 
8 251 260 262 252 45 263 265 257 
8 260 113 122 262 263 10 115 265 
8 262 122 127 261 265 115 46 264 
8 252 262 261 253 257 265 264 48 
8 228 41 240 243 261 127 266 271 
8 243 240 42 241 271 266 267 268 
8 242 243 241 43 270 271 268 269 
8 253 261 271 270 48 264 275 274 
8 261 127 266 271 264 46 272 275 
8 271 266 267 268 275 272 11 273 
8 270 271 268 269 274 275 273 47 
8 107 44 242 249 254 253 270 277 
8 249 242 43 248 277 270 269 276 
8 192 249 248 33 194 277 276 193 
8 191 254 277 194 30 258 279 190 
8 254 253 270 277 258 48 274 279 
8 277 270 269 276 279 274 47 278 
8 194 277 276 193 190 279 278 4 
8 280 12 281 283 284 285 286 289 
8 283 281 50 282 289 286 287 288 
8 111 283 282 52 118 289 288 119 
8 117 284 289 118 53 290 293 125 
8 284 285 286 289 290 54 291 293 
8 289 286 287 288 293 291 55 292 
8 118 289 288 119 125 293 292 58 
8 282 50 294 297 288 287 298 303 
8 297 294 13 295 303 298 299 300 
8 296 297 295 51 302 303 300 301 
8 119 288 303 302 58 292 307 306 
8 288 287 298 303 292 55 304 307 
8 303 298 299 300 307 304 56 305 
8 302 303 300 301 306 307 305 57 
8 112 52 296 309 120 119 302 311 
8 309 296 51 308 311 302 301 310 
8 222 309 308 8 223 311 310 218 
8 121 120 311 223 41 126 313 224 
8 120 119 302 311 126 58 306 313 
8 311 302 301 310 313 306 57 312 
8 223 311 310 218 224 313 312 36 
8 124 53 125 128 314 315 316 319 
8 128 125 58 126 319 316 317 318 
8 127 128 126 41 266 319 318 240 
8 272 314 319 266 11 320 323 267 
8 314 315 316 319 320 59 321 323 
8 319 316 317 318 323 321 62 322 
8 266 319 318 240 267 323 322 42 
8 290 54 291 293 324 325 326 329 
8 293 291 55 292 329 326 327 328 
8 125 293 292 58 316 329 328 317 
8 315 324 329 316 59 330 333 321 
8 324 325 326 329 330 14 331 333 
8 329 326 327 328 333 331 60 332 
8 316 329 328 317 321 333 332 62 
8 292 55 304 307 328 327 334 339 
8 307 304 56 305 339 334 335 336 
8 306 307 305 57 338 339 336 337 
8 317 328 339 338 62 332 343 342 
8 328 327 334 339 332 60 340 343 
8 339 334 335 336 343 340 15 341 
8 338 339 336 337 342 343 341 61 
8 126 58 306 313 318 317 338 345 
8 313 306 57 312 345 338 337 344 
8 224 313 312 36 234 345 344 230 
8 240 318 345 234 42 322 347 235 
8 318 317 338 345 322 62 342 347 
8 345 338 337 344 347 342 61 346 
8 234 345 344 230 235 347 346 9 
8 348 14 331 350 351 325 326 353 
8 350 331 60 349 353 326 327 352 
8 130 350 349 65 135 353 352 136 
8 134 351 353 135 66 354 356 140 
8 351 325 326 353 354 54 291 356 
8 353 326 327 352 356 291 55 355 
8 135 353 352 136 140 356 355 68 
8 349 60 340 359 352 327 334 363 
8 359 340 15 357 363 334 335 360 
8 358 359 357 64 362 363 360 361 
8 136 352 363 362 68 355 366 365 
8 352 327 334 363 355 55 304 366 
8 363 334 335 360 366 304 56 364 
8 362 363 360 361 365 366 364 67 
8 131 65 358 368 137 136 362 370 
8 368 358 64 367 370 362 361 369 
8 172 368 367 2 173 370 369 171 
8 74 137 370 173 20 141 372 159 
8 137 136 362 370 141 68 365 372 
8 370 362 361 369 372 365 67 371 
8 173 370 369 171 159 372 371 18 
8 139 66 140 142 373 374 375 378 
8 142 140 68 141 378 375 376 377 
8 73 142 141 20 146 378 377 145 
8 143 373 378 146 1 379 382 144 
8 373 374 375 378 379 69 380 382 
8 378 375 376 377 382 380 71 381 
8 146 378 377 145 144 382 381 17 
8 354 54 291 356 383 285 286 385 
8 356 291 55 355 385 286 287 384 
8 140 356 355 68 375 385 384 376 
8 374 383 385 375 69 386 388 380 
8 383 285 286 385 386 12 281 388 
8 385 286 287 384 388 281 50 387 
8 375 385 384 376 380 388 387 71 
8 355 55 304 366 384 287 298 392 
8 366 304 56 364 392 298 299 389 
8 365 366 364 67 391 392 389 390 
8 376 384 392 391 71 387 395 394 
8 384 287 298 392 387 50 294 395 
8 392 298 299 389 395 294 13 393 
8 391 392 389 390 394 395 393 70 
8 141 68 365 372 377 376 391 397 
8 372 365 67 371 397 391 390 396 
8 159 372 371 18 160 397 396 158 
8 145 377 397 160 17 381 399 157 
8 377 376 391 397 381 71 394 399 
8 397 391 390 396 399 394 70 398 
8 160 397 396 158 157 399 398 3 

CELL_TYPES 256
12
12
12
12
12
12
12
12
12
12
12
12
12
12
12
12
12
12
12
12
12
12
12
12
12
12
12
12
12
12
12
12
12
12
12
12
12
12
12
12
12
12
12
12
12
12
12
12
12
12
12
12
12
12
12
12
12
12
12
12
12
12
12
12
12
12
12
12
12
12
12
12
12
12
12
12
12
12
12
12
12
12
12
12
12
12
12
12
12
12
12
12
12
12
12
12
12
12
12
12
12
12
12
12
12
12
12
12
12
12
12
12
12
12
12
12
12
12
12
12
12
12
12
12
12
12
12
12
12
12
12
12
12
12
12
12
12
12
12
12
12
12
12
12
12
12
12
12
12
12
12
12
12
12
12
12
12
12
12
12
12
12
12
12
12
12
12
12
12
12
12
12
12
12
12
12
12
12
12
12
12
12
12
12
12
12
12
12
12
12
12
12
12
12
12
12
12
12
12
12
12
12
12
12
12
12
12
12
12
12
12
12
12
12
12
12
12
12
12
12
12
12
12
12
12
12
12
12
12
12
12
12
12
12
12
12
12
12
12
12
12
12
12
12
12
12
12
12
12
12
12
12
12
12
12
12
POINT_DATA 400
SCALARS pact float 1
LOOKUP_TABLE default
1
1
1
1
1
1
1
1
1
1
1
1
1
1
1
1
1
1
1
1
1
1
1
1
1
1
1
1
1
1
1
1
1
1
1
1
1
1
1
1
1
1
1
1
1
1
1
1
1
1
1
1
1
1
1
1
1
1
1
1
1
1
1
1
1
1
1
1
1
1
1
1
1
1
1
1
1
1
1
1
1
1
1
1
1
1
1
1
1
1
1
1
1
1
1
1
1
1
1
1
1
1
1
1
1
1
1
1
1
1
1
1
1
1
1
1
1
1
1
1
1
1
1
1
1
1
1
1
1
1
1
1
1
1
1
1
1
1
1
1
1
1
1
1
1
1
1
1
1
1
1
1
1
1
1
1
1
1
1
1
1
1
1
1
1
1
1
1
1
1
1
1
1
1
1
1
1
1
1
1
1
1
1
1
1
1
1
1
1
1
1
1
1
1
1
1
1
1
1
1
1
1
1
1
1
1
1
1
1
1
1
1
1
1
1
1
1
1
1
1
1
1
1
1
1
1
1
1
1
1
1
1
1
1
1
1
1
1
1
1
1
1
1
1
1
1
1
1
1
1
1
1
1
1
1
1
1
1
1
1
1
1
1
1
1
1
1
1
1
1
1
1
1
1
1
1
1
1
1
1
1
1
1
1
1
1
1
1
1
1
1
1
1
1
1
1
1
1
1
1
1
1
1
1
1
1
1
1
1
1
1
1
1
1
1
1
1
1
1
1
1
1
1
1
1
1
1
1
1
1
1
1
1
1
1
1
1
1
1
1
1
1
1
1
1
1
1
1
1
1
1
1
1
1
1
1
1
1
1
1
1
1
1
1
1
1
1
1
1
1
1
1
1
1
1
1
1
1
1
1
1
1
1
1
1
1
1
1
1
1
1
1
1
1
1
1
1
1
1
1

CELL_DATA 256
SCALARS eact float 1
LOOKUP_TABLE default
1
1
1
1
1
1
1
1
1
1
1
1
1
1
1
1
1
1
0
1
1
1
0
1
1
1
1
1
1
0
1
1
1
1
1
1
1
1
1
1
1
1
1
1
1
1
1
1
1
1
1
1
1
1
1
1
1
1
1
1
1
1
1
1
1
1
1
1
1
1
1
1
1
1
1
1
1
1
1
1
1
1
1
1
1
1
1
1
1
1
1
1
1
1
1
1
1
1
1
1
1
1
1
1
1
1
1
1
1
1
1
1
1
1
1
1
1
1
1
1
1
1
1
1
1
1
1
1
1
1
1
1
1
1
1
1
1
1
1
1
1
1
1
1
1
1
1
1
1
1
1
1
1
1
1
1
1
1
0
1
1
0
0
1
1
1
1
1
1
1
1
1
1
1
1
1
1
1
1
1
1
1
1
1
1
1
0
1
1
1
1
1
1
1
1
1
1
1
1
1
1
1
1
1
1
1
1
1
1
1
0
0
1
1
1
1
1
1
1
1
1
1
1
1
1
1
1
1
1
1
1
1
1
1
1
0
1
1
0
0
1
1
1
1
1
1
1
1
1
1
1
1
1
1
1
1
